ITEM: TIMESTEP
0
ITEM: NUMBER OF ATOMS
198
ITEM: BOX BOUNDS pp pp pp
0.0000000000000000e+00 1.0654000000000000e+01
0.0000000000000000e+00 1.0654000000000000e+01
0.0000000000000000e+00 4.0000000000000000e+01
ITEM: ATOMS id type xs ys zs
1 3 0.202741 0.160503 0.04
2 3 0.453351 0.160503 0.04
3 3 0.703022 0.160503 0.04
4 3 0.952694 0.160503 0.04
5 3 0.202741 0.410175 0.04
6 3 0.453351 0.410175 0.04
7 3 0.703022 0.410175 0.04
8 3 0.952694 0.410175 0.04
9 3 0.202741 0.660785 0.04
10 3 0.453351 0.660785 0.04
11 3 0.703022 0.660785 0.04
12 3 0.952694 0.660785 0.04
13 3 0.202741 0.910456 0.04
14 3 0.453351 0.910456 0.04
15 3 0.703022 0.910456 0.04
16 3 0.952694 0.910456 0.04
17 3 0.077905 0.0356674 0.087
18 3 0.327576 0.0356674 0.087
19 3 0.578187 0.0356674 0.087
20 3 0.827858 0.0356674 0.087
21 3 0.077905 0.285339 0.087
22 3 0.327576 0.285339 0.087
23 3 0.578187 0.285339 0.087
24 3 0.827858 0.285339 0.087
25 3 0.077905 0.535949 0.087
26 3 0.327576 0.535949 0.087
27 3 0.578187 0.535949 0.087
28 3 0.827858 0.535949 0.087
29 3 0.077905 0.78562 0.087
30 3 0.327576 0.78562 0.087
31 3 0.578187 0.78562 0.087
32 3 0.827858 0.78562 0.087
33 3 0.203679 0.160503 0.13475
34 3 0.451474 0.161442 0.13475
35 3 0.702084 0.160503 0.13425
36 3 0.953632 0.159564 0.134
37 3 0.202741 0.409236 0.13425
38 3 0.452412 0.411113 0.13475
39 3 0.701145 0.412052 0.1345
40 3 0.951755 0.410175 0.134
41 3 0.204618 0.659846 0.13475
42 3 0.452412 0.659846 0.135
43 3 0.701145 0.660785 0.13475
44 3 0.952694 0.660785 0.134
45 3 0.204618 0.908579 0.13475
46 3 0.453351 0.908579 0.135
47 3 0.703022 0.910456 0.13425
48 3 0.953632 0.910456 0.13425
49 3 0.077905 0.0347287 0.18075
50 3 0.327576 0.0347287 0.18075
51 3 0.579125 0.0375446 0.18025
52 3 0.827858 0.0356674 0.1805
53 3 0.0741506 0.283462 0.18025
54 3 0.326638 0.281584 0.18325
55 3 0.580064 0.283462 0.18025
56 3 0.827858 0.285339 0.1805
57 3 0.0732119 0.53501 0.18
58 3 0.322883 0.533133 0.18175
59 3 0.580064 0.534072 0.1835
60 3 0.829735 0.53501 0.18025
61 3 0.0760278 0.784682 0.1805
62 3 0.326638 0.786559 0.185
63 3 0.581002 0.788436 0.18175
64 3 0.830674 0.786559 0.18025
65 4 0.324761 0.334147 0.2325
66 5 0.375446 0.557537 0.23275
67 5 0.326638 0.685189 0.23475
68 5 0.511545 0.535949 0.23425
69 5 0.410175 0.790313 0.2355
70 5 0.593204 0.642012 0.2345
71 5 0.546274 0.769664 0.2335
72 5 0.289093 0.453351 0.232
73 6 0.230899 0.697391 0.24375
74 6 0.542519 0.446781 0.24475
75 6 0.378262 0.879482 0.246
76 6 0.689882 0.628872 0.2425
77 6 0.606345 0.842876 0.2445
78 6 0.1896 0.473062 0.239
79 1 0.802392 0.895957 0.382977
80 2 0.884966 0.927049 0.378182
81 2 0.788546 0.927929 0.405258
82 1 0.426928 0.0655973 0.45155
83 2 0.374048 0.134377 0.456752
84 2 0.499653 0.10666 0.461328
85 1 0.257419 0.0264163 0.309537
86 2 0.239287 0.11364 0.316527
87 2 0.182401 0.0128842 0.294819
88 1 0.281281 0.444992 0.537592
89 2 0.260902 0.355301 0.537791
90 2 0.373249 0.444517 0.532995
91 1 0.970397 0.0921538 0.520259
92 2 0.952814 0.177791 0.520849
93 2 0.973878 0.0770398 0.496562
94 1 0.815963 0.348301 0.404424
95 2 0.841939 0.315987 0.425731
96 2 0.819066 0.43572 0.405081
97 1 0.915188 0.227531 0.325652
98 2 0.895531 0.158359 0.311623
99 2 0.837029 0.223158 0.339444
100 1 0.988794 0.446782 0.291117
101 2 0.0241451 0.360147 0.292633
102 2 0.905478 0.424045 0.298705
103 1 0.151516 0.642945 0.448015
104 2 0.206662 0.664688 0.428066
105 2 0.199978 0.689575 0.463571
106 1 0.796244 0.0220662 0.444
107 2 0.875738 0.0472488 0.453123
108 2 0.743127 0.0521382 0.461409
109 1 0.485176 0.436964 0.492021
110 2 0.424029 0.456269 0.475703
111 2 0.56413 0.476112 0.486149
112 1 0.0260694 0.0234226 0.365946
113 2 0.0302939 0.104014 0.355256
114 2 0.1027 0.0239188 0.378223
115 1 0.626027 0.219432 0.480607
116 2 0.71238 0.238934 0.487903
117 2 0.587768 0.298797 0.489239
118 1 0.698387 0.648792 0.388882
119 2 0.781095 0.630116 0.39229
120 2 0.702164 0.744417 0.389128
121 1 0.546884 0.918477 0.381867
122 2 0.632508 0.946463 0.3766
123 2 0.528176 0.953719 0.404186
124 1 0.138383 0.892854 0.524016
125 2 0.107792 0.825092 0.537544
126 2 0.0820928 0.962165 0.527087
127 1 0.368542 0.447379 0.423741
128 2 0.43504 0.447543 0.407114
129 2 0.317159 0.518423 0.416526
130 1 0.511518 0.467181 0.366925
131 2 0.50763 0.537932 0.351654
132 2 0.576573 0.498182 0.379393
133 1 0.0638567 0.69765 0.563412
134 2 0.0875557 0.616518 0.567006
135 2 0.972139 0.689731 0.561146
136 1 0.776866 0.555684 0.460309
137 2 0.749242 0.583025 0.438009
138 2 0.853418 0.598336 0.465627
139 1 0.963164 0.705606 0.28103
140 2 0.981243 0.614573 0.279759
141 2 0.87168 0.717222 0.276292
142 1 0.0841633 0.915146 0.249494
143 2 0.00413862 0.948943 0.245797
144 2 0.0616885 0.838371 0.262105
145 1 0.826693 0.721934 0.531643
146 2 0.763197 0.734724 0.513207
147 2 0.811633 0.797188 0.545573
148 1 0.468963 0.720513 0.341808
149 2 0.508112 0.783201 0.357547
150 2 0.482237 0.762033 0.320479
151 1 0.33002 0.78924 0.491061
152 2 0.260981 0.828089 0.505894
153 2 0.34944 0.864428 0.478208
154 1 0.859101 0.322284 0.500044
155 2 0.824254 0.407125 0.5015
156 2 0.948327 0.337931 0.496152
157 1 0.580668 0.732119 0.488301
158 2 0.491962 0.761651 0.488564
159 2 0.575245 0.651325 0.4994
160 1 0.198326 0.272681 0.446566
161 2 0.157426 0.333407 0.460466
162 2 0.266391 0.328352 0.436639
163 1 0.700249 0.183523 0.362339
164 2 0.613728 0.174911 0.365029
165 2 0.724972 0.237522 0.381063
166 1 0.797631 0.98711 0.309335
167 2 0.706132 0.977775 0.307889
168 2 0.813966 0.970188 0.332967
169 1 0.0858054 0.202248 0.267421
170 2 0.151337 0.248696 0.255287
171 2 0.0708467 0.13592 0.253568
172 1 0.442647 0.212229 0.360837
173 2 0.466518 0.294695 0.368335
174 2 0.352971 0.227017 0.356577
175 1 0.510012 0.991841 0.306233
176 2 0.420171 0.00123853 0.300513
177 2 0.51427 0.0646255 0.321379
178 1 0.0393962 0.0899104 0.454687
179 2 0.0977668 0.156816 0.445297
180 2 0.0854411 0.0179261 0.446846
181 1 0.0903149 0.452764 0.489352
182 2 0.0883889 0.53314 0.477313
183 2 0.151512 0.467796 0.506385
184 1 0.252873 0.980446 0.406561
185 2 0.320726 0.034984 0.416195
186 2 0.295442 0.950438 0.387191
187 1 0.286248 0.657522 0.391509
188 2 0.348698 0.662642 0.37377
189 2 0.213403 0.66968 0.377266
190 1 0.167579 0.247525 0.342078
191 2 0.152128 0.324502 0.354131
192 2 0.0804777 0.249158 0.332561
193 1 0.0832073 0.740662 0.346386
194 2 0.0531981 0.736303 0.322533
195 2 0.0411863 0.816109 0.353836
196 1 0.944087 0.583283 0.398268
197 2 0.994548 0.635177 0.412039
198 2 0.00275785 0.542129 0.382865
ITEM: TIMESTEP
100000
ITEM: NUMBER OF ATOMS
198
ITEM: BOX BOUNDS pp pp pp
0.0000000000000000e+00 1.0654000000000000e+01
0.0000000000000000e+00 1.0654000000000000e+01
0.0000000000000000e+00 4.0000000000000000e+01
ITEM: ATOMS id type xs ys zs
1 3 0.202741 0.160503 0.04
2 3 0.453351 0.160503 0.04
3 3 0.703022 0.160503 0.04
4 3 0.952694 0.160503 0.04
5 3 0.202741 0.410175 0.04
6 3 0.453351 0.410175 0.04
7 3 0.703022 0.410175 0.04
8 3 0.952694 0.410175 0.04
9 3 0.202741 0.660785 0.04
10 3 0.453351 0.660785 0.04
11 3 0.703022 0.660785 0.04
12 3 0.952694 0.660785 0.04
13 3 0.202741 0.910456 0.04
14 3 0.453351 0.910456 0.04
15 3 0.703022 0.910456 0.04
16 3 0.952694 0.910456 0.04
17 3 0.077905 0.0356674 0.087
18 3 0.327576 0.0356674 0.087
19 3 0.578187 0.0356674 0.087
20 3 0.827858 0.0356674 0.087
21 3 0.077905 0.285339 0.087
22 3 0.327576 0.285339 0.087
23 3 0.578187 0.285339 0.087
24 3 0.827858 0.285339 0.087
25 3 0.077905 0.535949 0.087
26 3 0.327576 0.535949 0.087
27 3 0.578187 0.535949 0.087
28 3 0.827858 0.535949 0.087
29 3 0.077905 0.78562 0.087
30 3 0.327576 0.78562 0.087
31 3 0.578187 0.78562 0.087
32 3 0.827858 0.78562 0.087
33 3 0.203679 0.160503 0.13475
34 3 0.451474 0.161442 0.13475
35 3 0.702084 0.160503 0.13425
36 3 0.953632 0.159564 0.134
37 3 0.202741 0.409236 0.13425
38 3 0.452412 0.411113 0.13475
39 3 0.701145 0.412052 0.1345
40 3 0.951755 0.410175 0.134
41 3 0.204618 0.659846 0.13475
42 3 0.452412 0.659846 0.135
43 3 0.701145 0.660785 0.13475
44 3 0.952694 0.660785 0.134
45 3 0.204618 0.908579 0.13475
46 3 0.453351 0.908579 0.135
47 3 0.703022 0.910456 0.13425
48 3 0.953632 0.910456 0.13425
49 3 0.077905 0.0347287 0.18075
50 3 0.327576 0.0347287 0.18075
51 3 0.579125 0.0375446 0.18025
52 3 0.827858 0.0356674 0.1805
53 3 0.0741506 0.283462 0.18025
54 3 0.326638 0.281584 0.18325
55 3 0.580064 0.283462 0.18025
56 3 0.827858 0.285339 0.1805
57 3 0.0732119 0.53501 0.18
58 3 0.322883 0.533133 0.18175
59 3 0.580064 0.534072 0.1835
60 3 0.829735 0.53501 0.18025
61 3 0.0760278 0.784682 0.1805
62 3 0.326638 0.786559 0.185
63 3 0.581002 0.788436 0.18175
64 3 0.830674 0.786559 0.18025
65 4 0.324761 0.334147 0.2325
66 5 0.375446 0.557537 0.23275
67 5 0.326638 0.685189 0.23475
68 5 0.511545 0.535949 0.23425
69 5 0.410175 0.790313 0.2355
70 5 0.593204 0.642012 0.2345
71 5 0.546274 0.769664 0.2335
72 5 0.289093 0.453351 0.232
73 6 0.230899 0.697391 0.24375
74 6 0.542519 0.446781 0.24475
75 6 0.378262 0.879482 0.246
76 6 0.689882 0.628872 0.2425
77 6 0.606345 0.842876 0.2445
78 6 0.1896 0.473062 0.239
79 1 0.810484 0.681571 0.549589
80 2 0.742329 0.660334 0.565079
81 2 0.801997 0.619347 0.532615
82 1 0.998174 0.283338 0.35462
83 2 0.919432 0.330632 0.357941
84 2 0.0595898 0.352161 0.350925
85 1 0.148286 0.504041 0.352577
86 2 0.159617 0.564574 0.371626
87 2 0.221914 0.521611 0.3383
88 1 0.140248 0.18034 0.5734
89 2 0.102019 0.100833 0.568423
90 2 0.210248 0.157955 0.586841
91 1 0.506067 0.929586 0.526441
92 2 0.526583 0.911073 0.503908
93 2 0.422749 0.975661 0.527193
94 1 0.554514 0.294212 0.514005
95 2 0.583417 0.226242 0.527323
96 2 0.467507 0.301559 0.52213
97 1 0.678236 0.117139 0.554297
98 2 0.733385 0.0533607 0.543966
99 2 0.61225 0.066743 0.561815
100 1 0.748462 0.453973 0.514116
101 2 0.805636 0.392247 0.526288
102 2 0.66815 0.407664 0.510616
103 1 0.780201 0.0202109 0.373651
104 2 0.704503 0.977655 0.367867
105 2 0.758654 0.0961669 0.363722
106 1 0.424481 0.514511 0.434945
107 2 0.417323 0.426611 0.430593
108 2 0.490495 0.520347 0.450396
109 1 0.358792 0.245519 0.421395
110 2 0.396749 0.165841 0.415865
111 2 0.26965 0.224883 0.416917
112 1 0.966463 0.0129167 0.416264
113 2 0.888508 0.023109 0.404048
114 2 0.954758 0.926653 0.425733
115 1 0.566707 0.916725 0.354276
116 2 0.551815 0.83134 0.363626
117 2 0.48789 0.921022 0.340813
118 1 0.227157 0.128987 0.298058
119 2 0.142634 0.164267 0.303921
120 2 0.216976 0.0414011 0.301042
121 1 0.109563 0.21745 0.413162
122 2 0.0810022 0.129801 0.415974
123 2 0.0818212 0.230435 0.391242
124 1 0.0813785 0.611208 0.430792
125 2 0.0146083 0.543032 0.432099
126 2 0.140734 0.585048 0.448632
127 1 0.863053 0.47165 0.443568
128 2 0.846648 0.470431 0.466914
129 2 0.786661 0.427822 0.435293
130 1 0.826497 0.630428 0.38005
131 2 0.878794 0.597736 0.396359
132 2 0.779586 0.55876 0.373832
133 1 0.739413 0.391368 0.377088
134 2 0.702486 0.344654 0.396236
135 2 0.694425 0.3313 0.360728
136 1 0.0535862 0.722814 0.515234
137 2 0.102042 0.652519 0.508319
138 2 0.986364 0.677059 0.525891
139 1 0.842826 0.973098 0.526357
140 2 0.935507 0.9678 0.522518
141 2 0.842366 0.913173 0.545545
142 1 0.422233 0.717904 0.376482
143 2 0.335061 0.743585 0.382299
144 2 0.443978 0.650578 0.392767
145 1 0.927945 0.292063 0.54145
146 2 0.00970475 0.263343 0.548642
147 2 0.869145 0.220817 0.547267
148 1 0.362548 0.582335 0.314177
149 2 0.395999 0.499712 0.310566
150 2 0.401938 0.609659 0.334295
151 1 0.278156 0.0221269 0.508175
152 2 0.230604 0.09749 0.505903
153 2 0.269127 0.974952 0.48695
154 1 0.632177 0.915941 0.464341
155 2 0.702382 0.966288 0.47324
156 2 0.667346 0.830038 0.465253
157 1 0.461296 0.0102616 0.416915
158 2 0.519554 0.977786 0.435011
159 2 0.50128 0.979945 0.396463
160 1 0.519912 0.23949 0.362388
161 2 0.455077 0.273251 0.347388
162 2 0.478527 0.254747 0.383329
163 1 0.393622 0.318531 0.309447
164 2 0.412926 0.297512 0.285547
165 2 0.339606 0.243649 0.311514
166 1 0.27489 0.832635 0.319426
167 2 0.18483 0.844717 0.325526
168 2 0.290871 0.74059 0.321995
169 1 0.80655 0.13059 0.462091
170 2 0.805164 0.0925556 0.483307
171 2 0.896164 0.111334 0.452843
172 1 0.246147 0.928274 0.448747
173 2 0.210274 0.878189 0.430813
174 2 0.323246 0.95057 0.440384
175 1 0.176572 0.786397 0.39126
176 2 0.132268 0.848945 0.378262
177 2 0.110602 0.726106 0.39534
178 1 0.934775 0.817386 0.459689
179 2 0.966404 0.807558 0.4822
180 2 0.970425 0.741586 0.449682
181 1 0.110052 0.936455 0.551866
182 2 0.166517 0.969412 0.53472
183 2 0.112699 0.85188 0.544853
184 1 0.108112 0.232837 0.490402
185 2 0.0262818 0.268884 0.497647
186 2 0.106877 0.248288 0.465618
187 1 0.978523 0.844428 0.356808
188 2 0.932747 0.763004 0.362758
189 2 0.916767 0.914783 0.357677
190 1 0.29224 0.33456 0.523483
191 2 0.264787 0.297954 0.542804
192 2 0.240687 0.286309 0.507606
193 1 0.649069 0.325324 0.446282
194 2 0.589261 0.29968 0.462432
195 2 0.708375 0.260931 0.45089
196 1 0.230732 0.536157 0.481527
197 2 0.255265 0.477155 0.499194
198 2 0.310115 0.554128 0.469287
ITEM: TIMESTEP
200000
ITEM: NUMBER OF ATOMS
198
ITEM: BOX BOUNDS pp pp pp
0.0000000000000000e+00 1.0654000000000000e+01
0.0000000000000000e+00 1.0654000000000000e+01
0.0000000000000000e+00 4.0000000000000000e+01
ITEM: ATOMS id type xs ys zs
1 3 0.202741 0.160503 0.04
2 3 0.453351 0.160503 0.04
3 3 0.703022 0.160503 0.04
4 3 0.952694 0.160503 0.04
5 3 0.202741 0.410175 0.04
6 3 0.453351 0.410175 0.04
7 3 0.703022 0.410175 0.04
8 3 0.952694 0.410175 0.04
9 3 0.202741 0.660785 0.04
10 3 0.453351 0.660785 0.04
11 3 0.703022 0.660785 0.04
12 3 0.952694 0.660785 0.04
13 3 0.202741 0.910456 0.04
14 3 0.453351 0.910456 0.04
15 3 0.703022 0.910456 0.04
16 3 0.952694 0.910456 0.04
17 3 0.077905 0.0356674 0.087
18 3 0.327576 0.0356674 0.087
19 3 0.578187 0.0356674 0.087
20 3 0.827858 0.0356674 0.087
21 3 0.077905 0.285339 0.087
22 3 0.327576 0.285339 0.087
23 3 0.578187 0.285339 0.087
24 3 0.827858 0.285339 0.087
25 3 0.077905 0.535949 0.087
26 3 0.327576 0.535949 0.087
27 3 0.578187 0.535949 0.087
28 3 0.827858 0.535949 0.087
29 3 0.077905 0.78562 0.087
30 3 0.327576 0.78562 0.087
31 3 0.578187 0.78562 0.087
32 3 0.827858 0.78562 0.087
33 3 0.203679 0.160503 0.13475
34 3 0.451474 0.161442 0.13475
35 3 0.702084 0.160503 0.13425
36 3 0.953632 0.159564 0.134
37 3 0.202741 0.409236 0.13425
38 3 0.452412 0.411113 0.13475
39 3 0.701145 0.412052 0.1345
40 3 0.951755 0.410175 0.134
41 3 0.204618 0.659846 0.13475
42 3 0.452412 0.659846 0.135
43 3 0.701145 0.660785 0.13475
44 3 0.952694 0.660785 0.134
45 3 0.204618 0.908579 0.13475
46 3 0.453351 0.908579 0.135
47 3 0.703022 0.910456 0.13425
48 3 0.953632 0.910456 0.13425
49 3 0.077905 0.0347287 0.18075
50 3 0.327576 0.0347287 0.18075
51 3 0.579125 0.0375446 0.18025
52 3 0.827858 0.0356674 0.1805
53 3 0.0741506 0.283462 0.18025
54 3 0.326638 0.281584 0.18325
55 3 0.580064 0.283462 0.18025
56 3 0.827858 0.285339 0.1805
57 3 0.0732119 0.53501 0.18
58 3 0.322883 0.533133 0.18175
59 3 0.580064 0.534072 0.1835
60 3 0.829735 0.53501 0.18025
61 3 0.0760278 0.784682 0.1805
62 3 0.326638 0.786559 0.185
63 3 0.581002 0.788436 0.18175
64 3 0.830674 0.786559 0.18025
65 4 0.324761 0.334147 0.2325
66 5 0.375446 0.557537 0.23275
67 5 0.326638 0.685189 0.23475
68 5 0.511545 0.535949 0.23425
69 5 0.410175 0.790313 0.2355
70 5 0.593204 0.642012 0.2345
71 5 0.546274 0.769664 0.2335
72 5 0.289093 0.453351 0.232
73 6 0.230899 0.697391 0.24375
74 6 0.542519 0.446781 0.24475
75 6 0.378262 0.879482 0.246
76 6 0.689882 0.628872 0.2425
77 6 0.606345 0.842876 0.2445
78 6 0.1896 0.473062 0.239
79 1 0.26683 0.384499 0.426371
80 2 0.253228 0.463771 0.437678
81 2 0.30442 0.425932 0.405748
82 1 0.604262 0.692343 0.484114
83 2 0.609945 0.642712 0.463917
84 2 0.689483 0.70118 0.489278
85 1 0.75531 0.976681 0.433313
86 2 0.825673 0.979372 0.41765
87 2 0.795256 0.95253 0.452515
88 1 0.0127422 0.526581 0.520913
89 2 -0.00698066 0.472644 0.503609
90 2 0.0758298 0.469968 0.530459
91 1 0.424945 0.763031 0.349941
92 2 0.360816 0.820883 0.346803
93 2 0.50456 0.822343 0.351778
94 1 0.643904 0.244119 0.455446
95 2 0.691264 0.290445 0.439572
96 2 0.675135 0.155357 0.450482
97 1 0.5395 0.186266 0.297633
98 2 0.603365 0.253333 0.293806
99 2 0.585177 0.109118 0.303005
100 1 0.190227 0.889829 0.319158
101 2 0.230849 0.974102 0.318869
102 2 0.111382 0.913484 0.307935
103 1 0.875187 0.699346 0.484584
104 2 0.930064 0.654448 0.502793
105 2 0.901812 0.784928 0.488575
106 1 0.16238 0.303638 0.518435
107 2 0.13631 0.230551 0.508359
108 2 0.25013 0.298394 0.513043
109 1 0.723298 0.35225 0.39386
110 2 0.779915 0.284544 0.385896
111 2 0.702859 0.401942 0.374971
112 1 0.91535 0.951649 0.498135
113 2 0.987267 0.00154033 0.49077
114 2 0.915095 0.982845 0.52021
115 1 0.538579 0.852517 0.429724
116 2 0.532876 0.830191 0.451685
117 2 0.611974 0.89766 0.428224
118 1 0.107789 0.72394 0.402899
119 2 0.033965 0.679252 0.408654
120 2 0.165933 0.688881 0.419137
121 1 0.91598 0.995449 0.337365
122 2 0.935061 1.00195 0.36097
123 2 0.91489 0.0811111 0.32955
124 1 0.975812 0.782361 0.247494
125 2 0.91999 0.854125 0.256679
126 2 0.939491 0.778826 0.225471
127 1 0.989008 0.970886 0.402179
128 2 0.0122081 0.880859 0.404974
129 2 0.0606743 0.0212419 0.405393
130 1 0.135319 0.657327 0.336866
131 2 0.174369 0.737154 0.327279
132 2 0.11766 0.68634 0.360141
133 1 0.11866 0.100024 0.476691
134 2 0.130303 0.0973135 0.452936
135 2 0.187847 0.0459478 0.484681
136 1 0.211481 0.637483 0.461385
137 2 0.14236 0.576409 0.464852
138 2 0.267522 0.597191 0.477694
139 1 0.37842 0.528702 0.499445
140 2 0.388859 0.436751 0.500597
141 2 0.465958 0.547713 0.504209
142 1 0.946616 0.582836 0.295011
143 2 0.953886 0.637301 0.276496
144 2 0.0294956 0.589587 0.303875
145 1 0.305182 0.946556 0.404727
146 2 0.373887 0.916087 0.418017
147 2 0.242477 0.883004 0.406846
148 1 0.270111 0.904699 0.493909
149 2 0.231974 0.848447 0.478255
150 2 0.321085 0.849453 0.507123
151 1 0.673802 0.888644 0.335772
152 2 0.756726 0.920731 0.338878
153 2 0.694608 0.796624 0.34011
154 1 0.574397 0.549728 0.313677
155 2 0.503721 0.601396 0.321723
156 2 0.638206 0.605925 0.320846
157 1 0.769808 0.645384 0.343591
158 2 0.803947 0.642118 0.366444
159 2 0.842719 0.627555 0.330117
160 1 0.167386 0.150682 0.411328
161 2 0.208252 0.230919 0.404276
162 2 0.236586 0.0876206 0.410036
163 1 0.818643 0.955316 0.273208
164 2 0.834855 0.0397226 0.264542
165 2 0.826633 0.968944 0.297699
166 1 0.900707 0.205036 0.287504
167 2 0.983759 0.234779 0.292353
168 2 0.857559 0.284412 0.288735
169 1 0.112898 0.384579 0.350677
170 2 0.179898 0.362482 0.337045
171 2 0.136404 0.475883 0.351935
172 1 0.600083 0.548576 0.424718
173 2 0.521635 0.545181 0.413102
174 2 0.624813 0.462659 0.419462
175 1 0.409322 0.518353 0.381939
176 2 0.385451 0.464172 0.362611
177 2 0.408526 0.605502 0.374738
178 1 0.350856 0.365991 0.327324
179 2 0.403537 0.400387 0.30834
180 2 0.365399 0.278715 0.325893
181 1 0.821222 0.656144 0.411876
182 2 0.730295 0.647946 0.4164
183 2 0.858918 0.625586 0.43199
184 1 0.403058 0.278985 0.480457
185 2 0.484276 0.239183 0.476092
186 2 0.356474 0.284799 0.458281
187 1 0.744261 0.400326 0.286305
188 2 0.677555 0.459642 0.296801
189 2 0.80271 0.46971 0.279277
190 1 0.278217 0.134647 0.284723
191 2 0.258629 0.201287 0.266944
192 2 0.369759 0.141083 0.284124
193 1 0.00866861 0.440641 0.448151
194 2 0.0640198 0.370862 0.44328
195 2 0.926808 0.421847 0.436553
196 1 0.930473 0.240405 0.379054
197 2 -0.00209452 0.289545 0.366397
198 2 -0.0152224 0.188349 0.392089
ITEM: TIMESTEP
300000
ITEM: NUMBER OF ATOMS
198
ITEM: BOX BOUNDS pp pp pp
0.0000000000000000e+00 1.0654000000000000e+01
0.0000000000000000e+00 1.0654000000000000e+01
0.0000000000000000e+00 4.0000000000000000e+01
ITEM: ATOMS id type xs ys zs
1 3 0.202741 0.160503 0.04
2 3 0.453351 0.160503 0.04
3 3 0.703022 0.160503 0.04
4 3 0.952694 0.160503 0.04
5 3 0.202741 0.410175 0.04
6 3 0.453351 0.410175 0.04
7 3 0.703022 0.410175 0.04
8 3 0.952694 0.410175 0.04
9 3 0.202741 0.660785 0.04
10 3 0.453351 0.660785 0.04
11 3 0.703022 0.660785 0.04
12 3 0.952694 0.660785 0.04
13 3 0.202741 0.910456 0.04
14 3 0.453351 0.910456 0.04
15 3 0.703022 0.910456 0.04
16 3 0.952694 0.910456 0.04
17 3 0.077905 0.0356674 0.087
18 3 0.327576 0.0356674 0.087
19 3 0.578187 0.0356674 0.087
20 3 0.827858 0.0356674 0.087
21 3 0.077905 0.285339 0.087
22 3 0.327576 0.285339 0.087
23 3 0.578187 0.285339 0.087
24 3 0.827858 0.285339 0.087
25 3 0.077905 0.535949 0.087
26 3 0.327576 0.535949 0.087
27 3 0.578187 0.535949 0.087
28 3 0.827858 0.535949 0.087
29 3 0.077905 0.78562 0.087
30 3 0.327576 0.78562 0.087
31 3 0.578187 0.78562 0.087
32 3 0.827858 0.78562 0.087
33 3 0.203679 0.160503 0.13475
34 3 0.451474 0.161442 0.13475
35 3 0.702084 0.160503 0.13425
36 3 0.953632 0.159564 0.134
37 3 0.202741 0.409236 0.13425
38 3 0.452412 0.411113 0.13475
39 3 0.701145 0.412052 0.1345
40 3 0.951755 0.410175 0.134
41 3 0.204618 0.659846 0.13475
42 3 0.452412 0.659846 0.135
43 3 0.701145 0.660785 0.13475
44 3 0.952694 0.660785 0.134
45 3 0.204618 0.908579 0.13475
46 3 0.453351 0.908579 0.135
47 3 0.703022 0.910456 0.13425
48 3 0.953632 0.910456 0.13425
49 3 0.077905 0.0347287 0.18075
50 3 0.327576 0.0347287 0.18075
51 3 0.579125 0.0375446 0.18025
52 3 0.827858 0.0356674 0.1805
53 3 0.0741506 0.283462 0.18025
54 3 0.326638 0.281584 0.18325
55 3 0.580064 0.283462 0.18025
56 3 0.827858 0.285339 0.1805
57 3 0.0732119 0.53501 0.18
58 3 0.322883 0.533133 0.18175
59 3 0.580064 0.534072 0.1835
60 3 0.829735 0.53501 0.18025
61 3 0.0760278 0.784682 0.1805
62 3 0.326638 0.786559 0.185
63 3 0.581002 0.788436 0.18175
64 3 0.830674 0.786559 0.18025
65 4 0.324761 0.334147 0.2325
66 5 0.375446 0.557537 0.23275
67 5 0.326638 0.685189 0.23475
68 5 0.511545 0.535949 0.23425
69 5 0.410175 0.790313 0.2355
70 5 0.593204 0.642012 0.2345
71 5 0.546274 0.769664 0.2335
72 5 0.289093 0.453351 0.232
73 6 0.230899 0.697391 0.24375
74 6 0.542519 0.446781 0.24475
75 6 0.378262 0.879482 0.246
76 6 0.689882 0.628872 0.2425
77 6 0.606345 0.842876 0.2445
78 6 0.1896 0.473062 0.239
79 1 0.426815 0.109749 0.259028
80 2 0.445405 0.170868 0.243508
81 2 0.477783 0.137747 0.277821
82 1 0.366202 0.453469 0.318603
83 2 0.281215 0.476952 0.312942
84 2 0.406488 0.538891 0.320516
85 1 0.838601 0.570472 0.342194
86 2 0.818627 0.503249 0.357197
87 2 0.914339 0.595199 0.355605
88 1 0.0880371 0.583983 0.499662
89 2 0.166657 0.581739 0.508132
90 2 0.0865516 0.510255 0.485678
91 1 0.748083 0.803386 0.328399
92 2 0.775132 0.718551 0.331769
93 2 0.835011 0.838493 0.320485
94 1 0.0529239 0.638939 0.369765
95 2 0.0825633 0.711875 0.355396
96 2 0.109346 0.643945 0.388152
97 1 0.0642371 0.124751 0.45808
98 2 0.0967175 0.0523497 0.471963
99 2 0.0599604 0.0933363 0.435016
100 1 0.549066 0.682498 0.398203
101 2 0.630408 0.731026 0.396974
102 2 0.546117 0.63183 0.419083
103 1 0.920013 0.642726 0.26265
104 2 0.876324 0.663662 0.243135
105 2 0.933235 0.726907 0.270792
106 1 0.420461 0.728785 0.497501
107 2 0.388641 0.79558 0.483619
108 2 0.424634 0.650812 0.483212
109 1 0.797158 0.389173 0.388228
110 2 0.871098 0.346033 0.384099
111 2 0.790563 0.371784 0.41232
112 1 0.419639 0.52894 0.457143
113 2 0.479455 0.462903 0.454694
114 2 0.359446 0.474105 0.468026
115 1 0.514808 0.370403 0.384354
116 2 0.600406 0.404412 0.380432
117 2 0.532775 0.338201 0.406535
118 1 0.198682 0.802498 0.325713
119 2 0.284719 0.774103 0.324821
120 2 0.199226 0.885813 0.316436
121 1 0.152322 0.0285517 0.278741
122 2 0.103166 0.112322 0.280306
123 2 0.234151 0.0686321 0.272544
124 1 0.269336 0.935153 0.388461
125 2 0.184145 0.971984 0.386174
126 2 0.256345 0.854823 0.378268
127 1 0.50926 0.0216494 0.375524
128 2 0.421008 0.997816 0.379201
129 2 0.522834 -0.00787515 0.352391
130 1 0.276003 0.651693 0.407649
131 2 0.288359 0.62944 0.430677
132 2 0.365677 0.646771 0.401017
133 1 0.038253 0.866573 0.483354
134 2 0.0404723 0.777752 0.488491
135 2 0.946368 0.874759 0.482442
136 1 0.892493 0.343325 0.448646
137 2 0.937677 0.268335 0.455389
138 2 0.880337 0.392148 0.470192
139 1 0.5322 0.983614 0.443054
140 2 0.470836 0.91491 0.445718
141 2 0.541806 0.99437 0.418624
142 1 0.450257 0.717401 0.329371
143 2 0.531297 0.748637 0.323267
144 2 0.461623 0.698487 0.352346
145 1 0.0388032 0.270538 0.295493
146 2 0.951734 0.294642 0.289897
147 2 0.0768151 0.356165 0.295719
148 1 0.0214624 0.0122216 0.391618
149 2 0.995505 0.0925047 0.382352
150 2 0.948491 0.964851 0.391995
151 1 0.810402 0.106475 0.267881
152 2 0.804491 0.187754 0.280875
153 2 0.781777 0.125106 0.246178
154 1 0.78573 0.889775 0.392019
155 2 0.771681 0.84476 0.369944
156 2 0.712924 0.949081 0.391184
157 1 0.856588 0.540312 0.49353
158 2 0.80356 0.600709 0.506754
159 2 0.943703 0.567055 0.498519
160 1 0.0889414 0.511575 0.307537
161 2 0.0586944 0.536904 0.329882
162 2 0.027184 0.55623 0.294238
163 1 0.527238 0.255236 0.306772
164 2 0.460515 0.324138 0.308402
165 2 0.53995 0.250635 0.3306
166 1 0.0135752 0.280202 0.366815
167 2 0.030244 0.268624 0.342854
168 2 0.0948834 0.319657 0.370345
169 1 0.92595 0.887914 0.286209
170 2 0.0157516 0.90285 0.281434
171 2 0.894286 0.968397 0.277009
172 1 0.62609 0.00218166 0.309559
173 2 0.694631 0.0386796 0.297053
174 2 0.671965 0.923439 0.316149
175 1 0.180663 0.391678 0.459302
176 2 0.174049 0.369948 0.434576
177 2 0.161904 0.306023 0.466815
178 1 0.67545 0.710904 0.515146
179 2 0.685053 0.779269 0.500919
180 2 0.582588 0.705362 0.51775
181 1 0.784363 0.334336 0.297525
182 2 0.701062 0.308581 0.303137
183 2 0.779928 0.423248 0.306517
184 1 0.74862 0.871266 0.464199
185 2 0.767348 0.868927 0.440324
186 2 0.675743 0.928479 0.463976
187 1 0.677458 0.58074 0.448828
188 2 0.761621 0.552952 0.453912
189 2 0.665121 0.628772 0.468076
190 1 0.584914 0.25759 0.444372
191 2 0.550289 0.183582 0.457137
192 2 0.677111 0.247254 0.443938
193 1 0.282535 0.88172 0.460199
194 2 0.251381 0.89423 0.436051
195 2 0.201766 0.881227 0.472418
196 1 0.220212 0.374951 0.386955
197 2 0.247081 0.451798 0.377977
198 2 0.298589 0.333217 0.385641
ITEM: TIMESTEP
400000
ITEM: NUMBER OF ATOMS
198
ITEM: BOX BOUNDS pp pp pp
0.0000000000000000e+00 1.0654000000000000e+01
0.0000000000000000e+00 1.0654000000000000e+01
0.0000000000000000e+00 4.0000000000000000e+01
ITEM: ATOMS id type xs ys zs
1 3 0.202741 0.160503 0.04
2 3 0.453351 0.160503 0.04
3 3 0.703022 0.160503 0.04
4 3 0.952694 0.160503 0.04
5 3 0.202741 0.410175 0.04
6 3 0.453351 0.410175 0.04
7 3 0.703022 0.410175 0.04
8 3 0.952694 0.410175 0.04
9 3 0.202741 0.660785 0.04
10 3 0.453351 0.660785 0.04
11 3 0.703022 0.660785 0.04
12 3 0.952694 0.660785 0.04
13 3 0.202741 0.910456 0.04
14 3 0.453351 0.910456 0.04
15 3 0.703022 0.910456 0.04
16 3 0.952694 0.910456 0.04
17 3 0.077905 0.0356674 0.087
18 3 0.327576 0.0356674 0.087
19 3 0.578187 0.0356674 0.087
20 3 0.827858 0.0356674 0.087
21 3 0.077905 0.285339 0.087
22 3 0.327576 0.285339 0.087
23 3 0.578187 0.285339 0.087
24 3 0.827858 0.285339 0.087
25 3 0.077905 0.535949 0.087
26 3 0.327576 0.535949 0.087
27 3 0.578187 0.535949 0.087
28 3 0.827858 0.535949 0.087
29 3 0.077905 0.78562 0.087
30 3 0.327576 0.78562 0.087
31 3 0.578187 0.78562 0.087
32 3 0.827858 0.78562 0.087
33 3 0.203679 0.160503 0.13475
34 3 0.451474 0.161442 0.13475
35 3 0.702084 0.160503 0.13425
36 3 0.953632 0.159564 0.134
37 3 0.202741 0.409236 0.13425
38 3 0.452412 0.411113 0.13475
39 3 0.701145 0.412052 0.1345
40 3 0.951755 0.410175 0.134
41 3 0.204618 0.659846 0.13475
42 3 0.452412 0.659846 0.135
43 3 0.701145 0.660785 0.13475
44 3 0.952694 0.660785 0.134
45 3 0.204618 0.908579 0.13475
46 3 0.453351 0.908579 0.135
47 3 0.703022 0.910456 0.13425
48 3 0.953632 0.910456 0.13425
49 3 0.077905 0.0347287 0.18075
50 3 0.327576 0.0347287 0.18075
51 3 0.579125 0.0375446 0.18025
52 3 0.827858 0.0356674 0.1805
53 3 0.0741506 0.283462 0.18025
54 3 0.326638 0.281584 0.18325
55 3 0.580064 0.283462 0.18025
56 3 0.827858 0.285339 0.1805
57 3 0.0732119 0.53501 0.18
58 3 0.322883 0.533133 0.18175
59 3 0.580064 0.534072 0.1835
60 3 0.829735 0.53501 0.18025
61 3 0.0760278 0.784682 0.1805
62 3 0.326638 0.786559 0.185
63 3 0.581002 0.788436 0.18175
64 3 0.830674 0.786559 0.18025
65 4 0.324761 0.334147 0.2325
66 5 0.375446 0.557537 0.23275
67 5 0.326638 0.685189 0.23475
68 5 0.511545 0.535949 0.23425
69 5 0.410175 0.790313 0.2355
70 5 0.593204 0.642012 0.2345
71 5 0.546274 0.769664 0.2335
72 5 0.289093 0.453351 0.232
73 6 0.230899 0.697391 0.24375
74 6 0.542519 0.446781 0.24475
75 6 0.378262 0.879482 0.246
76 6 0.689882 0.628872 0.2425
77 6 0.606345 0.842876 0.2445
78 6 0.1896 0.473062 0.239
79 1 0.538761 0.908123 0.441466
80 2 0.526967 0.825698 0.451581
81 2 0.459274 0.951261 0.450282
82 1 0.838634 0.467048 0.397494
83 2 0.876989 0.464785 0.41947
84 2 0.758292 0.438818 0.404339
85 1 0.0724076 0.678154 0.544723
86 2 0.0601329 0.681554 0.568664
87 2 0.995734 0.725216 0.538696
88 1 0.458107 0.382143 0.342679
89 2 0.38681 0.345027 0.331942
90 2 0.467883 0.312507 0.357255
91 1 0.66049 0.0431634 0.398194
92 2 0.587095 0.0750946 0.387031
93 2 0.619151 0.961873 0.408372
94 1 0.575607 0.447015 0.474447
95 2 0.637405 0.404843 0.459355
96 2 0.533342 0.376236 0.484014
97 1 0.963623 0.395136 0.337484
98 2 0.893266 0.399552 0.320057